LIG_GMX.gro created by acpype (v: 2023.10.27) on Sat Jul 26 01:57:32 2025
 73
    1  UNK    C    1  -0.222  -5.415   7.449
    1  UNK   C1    2  -0.424  -5.436   7.330
    1  UNK   C2    3  -0.304  -5.221   7.321
    1  UNK   C3    4  -0.179  -5.292   7.371
    1  UNK   C4    5  -0.391  -5.316   7.243
    1  UNK   C5    6  -0.049  -5.565   7.371
    1  UNK   C6    7  -0.059  -5.699   7.364
    1  UNK   C7    8  -0.003  -5.774   7.268
    1  UNK   C8    9   0.073  -5.713   7.174
    1  UNK   C9   10   0.081  -5.988   7.223
    1  UNK  C10   11   0.107  -5.940   7.081
    1  UNK  C11   12   0.131  -5.790   7.077
    1  UNK  C12   13   0.089  -5.578   7.178
    1  UNK  C13   14   0.028  -5.509   7.276
    1  UNK  C14   15   0.046  -6.135   7.227
    1  UNK  C15   16   0.048  -6.204   7.342
    1  UNK  C16   17   0.016  -6.335   7.345
    1  UNK  C17   18  -0.018  -6.401   7.234
    1  UNK  C18   19  -0.020  -6.332   7.118
    1  UNK  C19   20   0.012  -6.201   7.115
    1  UNK  C20   21   0.009  -5.145   7.390
    1  UNK  C21   22   0.241  -5.173   7.419
    1  UNK  C22   23   0.282  -5.226   7.281
    1  UNK  C23   24   0.262  -5.023   7.437
    1  UNK  C24   25   0.148  -4.939   7.382
    1  UNK  C25   26   0.015  -4.998   7.423
    1  UNK  C26   27  -0.511  -5.539   7.259
    1  UNK    O   28  -0.306  -5.498   7.370
    1  UNK   O1   29  -0.111  -5.499   7.474
    1  UNK   O2   30  -0.022  -5.910   7.276
    1  UNK   O3   31   0.201  -5.749   6.987
    1  UNK   O4   32  -0.050  -6.533   7.238
    1  UNK   O5   33   0.163  -5.505   7.090
    1  UNK   O6   34  -0.110  -5.197   7.447
    1  UNK   O7   35   0.113  -5.215   7.456
    1  UNK   O8   36   0.274  -4.994   7.575
    1  UNK   O9   37   0.153  -4.935   7.241
    1  UNK  O10   38  -0.087  -4.931   7.353
    1  UNK  O11   39  -0.644  -5.492   7.246
    1  UNK  O12   40  -0.268  -5.112   7.239
    1  UNK  O13   41  -0.508  -5.247   7.206
    1  UNK    H   42  -0.103  -6.555   7.160
    1  UNK   H1   43   0.150  -5.528   6.997
    1  UNK   H2   44   0.275  -4.899   7.588
    1  UNK   H3   45   0.062  -4.927   7.209
    1  UNK   H4   46  -0.172  -4.968   7.378
    1  UNK   H5   47  -0.648  -5.401   7.276
    1  UNK   H6   48  -0.189  -5.072   7.276
    1  UNK   H7   49  -0.561  -5.306   7.151
    1  UNK   HC   50  -0.272  -5.387   7.542
    1  UNK  HC1   51  -0.477  -5.402   7.418
    1  UNK  HC2   52  -0.360  -5.184   7.407
    1  UNK  HC3   53  -0.118  -5.323   7.286
    1  UNK  HC4   54  -0.339  -5.349   7.153
    1  UNK  HC5   55  -0.117  -5.749   7.440
    1  UNK  HC6   56   0.172  -5.972   7.282
    1  UNK  HC7   57   0.021  -5.963   7.019
    1  UNK  HC8   58   0.195  -5.991   7.041
    1  UNK  HC9   59   0.041  -5.402   7.278
    1  UNK HC10   60   0.075  -6.154   7.434
    1  UNK HC11   61   0.019  -6.387   7.439
    1  UNK HC12   62  -0.047  -6.382   7.027
    1  UNK HC13   63   0.009  -6.149   7.020
    1  UNK HC14   64   0.012  -5.162   7.282
    1  UNK HC15   65   0.309  -5.221   7.490
    1  UNK HC16   66   0.354  -4.994   7.387
    1  UNK HC17   67   0.156  -4.837   7.421
    1  UNK HC18   68   0.001  -4.984   7.530
    1  UNK HC19   69  -0.470  -5.558   7.159
    1  UNK HC20   70  -0.511  -5.632   7.316
    1  UNK HC21   71   0.264  -5.334   7.277
    1  UNK HC22   72   0.222  -5.177   7.205
    1  UNK HC23   73   0.387  -5.206   7.264
   20.70400    34.36600    12.02000
