LIG_GMX.gro created by acpype (v: 2023.10.27) on Sat Jul 26 01:38:09 2025
 73
    1  UNK    C    1   2.325   0.372   4.074
    1  UNK   C1    2   2.439   0.344   3.869
    1  UNK   C2    3   2.232   0.216   3.908
    1  UNK   C3    4   2.196   0.312   4.020
    1  UNK   C4    5   2.316   0.286   3.803
    1  UNK   C5    6   2.319   0.471   4.294
    1  UNK   C6    7   2.255   0.554   4.377
    1  UNK   C7    8   2.269   0.554   4.511
    1  UNK   C8    9   2.357   0.468   4.567
    1  UNK   C9   10   2.255   0.690   4.701
    1  UNK  C10   11   2.289   0.567   4.783
    1  UNK  C11   12   2.373   0.468   4.702
    1  UNK  C12   13   2.427   0.383   4.487
    1  UNK  C13   14   2.406   0.387   4.354
    1  UNK  C14   15   2.163   0.784   4.777
    1  UNK  C15   16   2.174   0.918   4.763
    1  UNK  C16   17   2.092   1.000   4.830
    1  UNK  C17   18   1.996   0.954   4.912
    1  UNK  C18   19   1.985   0.820   4.924
    1  UNK  C19   20   2.067   0.737   4.858
    1  UNK  C20   21   2.007   0.292   4.165
    1  UNK  C21   22   1.907   0.324   4.376
    1  UNK  C22   23   1.901   0.477   4.382
    1  UNK  C23   24   1.778   0.258   4.330
    1  UNK  C24   25   1.761   0.254   4.179
    1  UNK  C25   26   1.890   0.210   4.114
    1  UNK  C26   27   2.530   0.419   3.772
    1  UNK    O   28   2.400   0.433   3.970
    1  UNK   O1   29   2.297   0.481   4.159
    1  UNK   O2   30   2.197   0.647   4.581
    1  UNK   O3   31   2.446   0.396   4.766
    1  UNK   O4   32   1.914   1.038   4.979
    1  UNK   O5   33   2.519   0.292   4.531
    1  UNK   O6   34   2.125   0.235   4.113
    1  UNK   O7   35   2.019   0.279   4.304
    1  UNK   O8   36   1.775   0.125   4.378
    1  UNK   O9   37   1.727   0.381   4.130
    1  UNK  O10   38   1.878   0.229   3.976
    1  UNK  O11   39   2.458   0.521   3.706
    1  UNK  O12   40   2.114   0.166   3.848
    1  UNK  O13   41   2.352   0.191   3.706
    1  UNK    H   42   1.963   1.081   5.051
    1  UNK   H1   43   2.593   0.329   4.581
    1  UNK   H2   44   1.779   0.064   4.303
    1  UNK   H3   45   1.808   0.421   4.095
    1  UNK   H4   46   1.954   0.191   3.931
    1  UNK   H5   47   2.473   0.605   3.752
    1  UNK   H6   48   2.127   0.073   3.830
    1  UNK   H7   49   2.271   0.158   3.665
    1  UNK   HC   50   2.385   0.296   4.125
    1  UNK  HC1   51   2.496   0.263   3.915
    1  UNK  HC2   52   2.289   0.132   3.949
    1  UNK  HC3   53   2.132   0.392   3.982
    1  UNK  HC4   54   2.257   0.365   3.756
    1  UNK  HC5   55   2.187   0.626   4.334
    1  UNK  HC6   56   2.348   0.743   4.678
    1  UNK  HC7   57   2.345   0.597   4.871
    1  UNK  HC8   58   2.197   0.518   4.815
    1  UNK  HC9   59   2.463   0.320   4.292
    1  UNK HC10   60   2.249   0.959   4.698
    1  UNK HC11   61   2.103   1.107   4.817
    1  UNK HC12   62   1.909   0.779   4.989
    1  UNK HC13   63   2.055   0.630   4.870
    1  UNK HC14   64   1.997   0.397   4.135
    1  UNK HC15   65   1.923   0.291   4.479
    1  UNK HC16   66   1.694   0.312   4.373
    1  UNK HC17   67   1.682   0.183   4.154
    1  UNK HC18   68   1.908   0.105   4.135
    1  UNK HC19   69   2.568   0.348   3.698
    1  UNK HC20   70   2.613   0.462   3.827
    1  UNK HC21   71   1.997   0.516   4.416
    1  UNK HC22   72   1.823   0.507   4.452
    1  UNK HC23   73   1.878   0.517   4.283
   18.62600    20.85600    27.71000
