; LIG_GMX.itp created by acpype (v: 2023.10.27) on Sat Jul 26 01:38:09 2025

[ atomtypes ]
;name   bond_type     mass     charge   ptype   sigma         epsilon       Amb
 c6       c6          0.00000  0.00000   A     3.39771e-01   4.51035e-01 ; 1.91  0.1078
 ca       ca          0.00000  0.00000   A     3.31521e-01   4.13379e-01 ; 1.86  0.0988
 c        c           0.00000  0.00000   A     3.31521e-01   4.13379e-01 ; 1.86  0.0988
 c3       c3          0.00000  0.00000   A     3.39771e-01   4.51035e-01 ; 1.91  0.1078
 os       os          0.00000  0.00000   A     3.15610e-01   3.03758e-01 ; 1.77  0.0726
 o        o           0.00000  0.00000   A     3.04812e-01   6.12119e-01 ; 1.71  0.1463
 oh       oh          0.00000  0.00000   A     3.24287e-01   3.89112e-01 ; 1.82  0.0930
 ho       ho          0.00000  0.00000   A     5.37925e-02   1.96648e-02 ; 0.30  0.0047
 h2       h2          0.00000  0.00000   A     2.24382e-01   8.70272e-02 ; 1.26  0.0208
 h1       h1          0.00000  0.00000   A     2.42200e-01   8.70272e-02 ; 1.36  0.0208
 ha       ha          0.00000  0.00000   A     2.62548e-01   6.73624e-02 ; 1.47  0.0161
 hc       hc          0.00000  0.00000   A     2.60018e-01   8.70272e-02 ; 1.46  0.0208

[ moleculetype ]
;name            nrexcl
 LIG              3

[ atoms ]
;   nr  type  resi  res  atom  cgnr     charge      mass       ; qtot   bond_type
     1   c6     1   LIG     C    1     0.323900     12.01000 ; qtot 0.324
     2   c6     1   LIG    C1    2     0.113100     12.01000 ; qtot 0.437
     3   c6     1   LIG    C2    3     0.106100     12.01000 ; qtot 0.543
     4   c6     1   LIG    C3    4     0.093100     12.01000 ; qtot 0.636
     5   c6     1   LIG    C4    5     0.123100     12.01000 ; qtot 0.759
     6   ca     1   LIG    C5    6     0.235100     12.01000 ; qtot 0.994
     7   ca     1   LIG    C6    7    -0.247000     12.01000 ; qtot 0.747
     8   ca     1   LIG    C7    8     0.227100     12.01000 ; qtot 0.974
     9   ca     1   LIG    C8    9    -0.362600     12.01000 ; qtot 0.612
    10   c6     1   LIG    C9   10     0.203400     12.01000 ; qtot 0.815
    11   c6     1   LIG   C10   11    -0.206400     12.01000 ; qtot 0.609
    12    c     1   LIG   C11   12     0.603700     12.01000 ; qtot 1.213
    13   ca     1   LIG   C12   13     0.266100     12.01000 ; qtot 1.479
    14   ca     1   LIG   C13   14    -0.276000     12.01000 ; qtot 1.203
    15   ca     1   LIG   C14   15    -0.136300     12.01000 ; qtot 1.066
    16   ca     1   LIG   C15   16    -0.069500     12.01000 ; qtot 0.997
    17   ca     1   LIG   C16   17    -0.188000     12.01000 ; qtot 0.809
    18   ca     1   LIG   C17   18     0.136100     12.01000 ; qtot 0.945
    19   ca     1   LIG   C18   19    -0.188000     12.01000 ; qtot 0.757
    20   ca     1   LIG   C19   20    -0.069500     12.01000 ; qtot 0.687
    21   c6     1   LIG   C20   21     0.300900     12.01000 ; qtot 0.988
    22   c6     1   LIG   C21   22     0.120100     12.01000 ; qtot 1.108
    23   c3     1   LIG   C22   23    -0.136100     12.01000 ; qtot 0.972
    24   c6     1   LIG   C23   24     0.114100     12.01000 ; qtot 1.086
    25   c6     1   LIG   C24   25     0.123100     12.01000 ; qtot 1.210
    26   c6     1   LIG   C25   26     0.077100     12.01000 ; qtot 1.287
    27   c3     1   LIG   C26   27     0.141400     12.01000 ; qtot 1.428
    28   os     1   LIG     O   28    -0.447600     16.00000 ; qtot 0.980
    29   os     1   LIG    O1   29    -0.325900     16.00000 ; qtot 0.655
    30   os     1   LIG    O2   30    -0.319900     16.00000 ; qtot 0.335
    31    o     1   LIG    O3   31    -0.574100     16.00000 ; qtot -0.239
    32   oh     1   LIG    O4   32    -0.494100     16.00000 ; qtot -0.734
    33   oh     1   LIG    O5   33    -0.497100     16.00000 ; qtot -1.231
    34   os     1   LIG    O6   34    -0.431600     16.00000 ; qtot -1.662
    35   os     1   LIG    O7   35    -0.439600     16.00000 ; qtot -2.102
    36   oh     1   LIG    O8   36    -0.588800     16.00000 ; qtot -2.691
    37   oh     1   LIG    O9   37    -0.596800     16.00000 ; qtot -3.287
    38   oh     1   LIG   O10   38    -0.599800     16.00000 ; qtot -3.887
    39   oh     1   LIG   O11   39    -0.594800     16.00000 ; qtot -4.482
    40   oh     1   LIG   O12   40    -0.598800     16.00000 ; qtot -5.081
    41   oh     1   LIG   O13   41    -0.591800     16.00000 ; qtot -5.673
    42   ho     1   LIG     H   42     0.422000      1.00800 ; qtot -5.251
    43   ho     1   LIG    H1   43     0.464000      1.00800 ; qtot -4.787
    44   ho     1   LIG    H2   44     0.408000      1.00800 ; qtot -4.379
    45   ho     1   LIG    H3   45     0.427000      1.00800 ; qtot -3.952
    46   ho     1   LIG    H4   46     0.418000      1.00800 ; qtot -3.534
    47   ho     1   LIG    H5   47     0.415000      1.00800 ; qtot -3.119
    48   ho     1   LIG    H6   48     0.416000      1.00800 ; qtot -2.703
    49   ho     1   LIG    H7   49     0.425000      1.00800 ; qtot -2.278
    50   h2     1   LIG    HC   50     0.090700      1.00800 ; qtot -2.187
    51   h1     1   LIG   HC1   51     0.064700      1.00800 ; qtot -2.122
    52   h1     1   LIG   HC2   52     0.070700      1.00800 ; qtot -2.052
    53   h1     1   LIG   HC3   53     0.086700      1.00800 ; qtot -1.965
    54   h1     1   LIG   HC4   54     0.081700      1.00800 ; qtot -1.883
    55   ha     1   LIG   HC5   55     0.171000      1.00800 ; qtot -1.712
    56   h1     1   LIG   HC6   56     0.064700      1.00800 ; qtot -1.647
    57   hc     1   LIG   HC7   57     0.092200      1.00800 ; qtot -1.555
    58   hc     1   LIG   HC8   58     0.092200      1.00800 ; qtot -1.463
    59   ha     1   LIG   HC9   59     0.168000      1.00800 ; qtot -1.295
    60   ha     1   LIG  HC10   60     0.142000      1.00800 ; qtot -1.153
    61   ha     1   LIG  HC11   61     0.146500      1.00800 ; qtot -1.006
    62   ha     1   LIG  HC12   62     0.146500      1.00800 ; qtot -0.860
    63   ha     1   LIG  HC13   63     0.142000      1.00800 ; qtot -0.718
    64   h2     1   LIG  HC14   64     0.084700      1.00800 ; qtot -0.633
    65   h1     1   LIG  HC15   65     0.089700      1.00800 ; qtot -0.544
    66   h1     1   LIG  HC16   66     0.105700      1.00800 ; qtot -0.438
    67   h1     1   LIG  HC17   67     0.065700      1.00800 ; qtot -0.372
    68   h1     1   LIG  HC18   68     0.064700      1.00800 ; qtot -0.307
    69   h1     1   LIG  HC19   69     0.065700      1.00800 ; qtot -0.242
    70   h1     1   LIG  HC20   70     0.065700      1.00800 ; qtot -0.176
    71   hc     1   LIG  HC21   71     0.058700      1.00800 ; qtot -0.117
    72   hc     1   LIG  HC22   72     0.058700      1.00800 ; qtot -0.059
    73   hc     1   LIG  HC23   73     0.058700      1.00800 ; qtot 0.000

[ bonds ]
;   ai     aj funct   r             k
     1      4   1    1.5384e-01    1.8979e+05 ;      C - C3    
     1     28   1    1.4300e-01    2.3412e+05 ;      C - O     
     1     29   1    1.4300e-01    2.3412e+05 ;      C - O1    
     1     50   1    1.0985e-01    2.8609e+05 ;      C - HC    
     2      5   1    1.5384e-01    1.8979e+05 ;     C1 - C4    
     2     27   1    1.5428e-01    1.8728e+05 ;     C1 - C26   
     2     28   1    1.4300e-01    2.3412e+05 ;     C1 - O     
     2     51   1    1.0984e-01    2.8620e+05 ;     C1 - HC1   
     3      4   1    1.5384e-01    1.8979e+05 ;     C2 - C3    
     3      5   1    1.5384e-01    1.8979e+05 ;     C2 - C4    
     3     40   1    1.4241e-01    2.3870e+05 ;     C2 - O12   
     3     52   1    1.0984e-01    2.8620e+05 ;     C2 - HC2   
     4     34   1    1.4300e-01    2.3412e+05 ;     C3 - O6    
     4     53   1    1.0984e-01    2.8620e+05 ;     C3 - HC3   
     5     41   1    1.4241e-01    2.3870e+05 ;     C4 - O13   
     5     54   1    1.0984e-01    2.8620e+05 ;     C4 - HC4   
     6      7   1    1.3986e-01    2.9644e+05 ;     C5 - C6    
     6     14   1    1.3986e-01    2.9644e+05 ;     C5 - C13   
     6     29   1    1.3688e-01    2.8731e+05 ;     C5 - O1    
     7      8   1    1.3986e-01    2.9644e+05 ;     C6 - C7    
     7     55   1    1.0860e-01    3.0183e+05 ;     C6 - HC5   
     8      9   1    1.3986e-01    2.9644e+05 ;     C7 - C8    
     8     30   1    1.3688e-01    2.8731e+05 ;     C7 - O2    
     9     12   1    1.4907e-01    2.1994e+05 ;     C8 - C11   
     9     13   1    1.3986e-01    2.9644e+05 ;     C8 - C12   
    10     11   1    1.5384e-01    1.8979e+05 ;     C9 - C10   
    10     15   1    1.5203e-01    2.0061e+05 ;     C9 - C14   
    10     30   1    1.4300e-01    2.3412e+05 ;     C9 - O2    
    10     56   1    1.0984e-01    2.8620e+05 ;     C9 - HC6   
    11     12   1    1.5287e-01    1.9550e+05 ;    C10 - C11   
    11     57   1    1.0979e-01    2.8681e+05 ;    C10 - HC7   
    11     58   1    1.0979e-01    2.8681e+05 ;    C10 - HC8   
    12     31   1    1.2190e-01    4.9421e+05 ;    C11 - O3    
    13     14   1    1.3986e-01    2.9644e+05 ;    C12 - C13   
    13     33   1    1.3644e-01    2.9167e+05 ;    C12 - O5    
    14     59   1    1.0860e-01    3.0183e+05 ;    C13 - HC9   
    15     16   1    1.3986e-01    2.9644e+05 ;    C14 - C15   
    15     20   1    1.3986e-01    2.9644e+05 ;    C14 - C19   
    16     17   1    1.3986e-01    2.9644e+05 ;    C15 - C16   
    16     60   1    1.0860e-01    3.0183e+05 ;    C15 - HC10  
    17     18   1    1.3986e-01    2.9644e+05 ;    C16 - C17   
    17     61   1    1.0860e-01    3.0183e+05 ;    C16 - HC11  
    18     19   1    1.3986e-01    2.9644e+05 ;    C17 - C18   
    18     32   1    1.3644e-01    2.9167e+05 ;    C17 - O4    
    19     20   1    1.3986e-01    2.9644e+05 ;    C18 - C19   
    19     62   1    1.0860e-01    3.0183e+05 ;    C18 - HC12  
    20     63   1    1.0860e-01    3.0183e+05 ;    C19 - HC13  
    21     26   1    1.5384e-01    1.8979e+05 ;    C20 - C25   
    21     34   1    1.4300e-01    2.3412e+05 ;    C20 - O6    
    21     35   1    1.4300e-01    2.3412e+05 ;    C20 - O7    
    21     64   1    1.0985e-01    2.8609e+05 ;    C20 - HC14  
    22     23   1    1.5428e-01    1.8728e+05 ;    C21 - C22   
    22     24   1    1.5384e-01    1.8979e+05 ;    C21 - C23   
    22     35   1    1.4300e-01    2.3412e+05 ;    C21 - O7    
    22     65   1    1.0984e-01    2.8620e+05 ;    C21 - HC15  
    23     71   1    1.0962e-01    2.8891e+05 ;    C22 - HC21  
    23     72   1    1.0962e-01    2.8891e+05 ;    C22 - HC22  
    23     73   1    1.0962e-01    2.8891e+05 ;    C22 - HC23  
    24     25   1    1.5384e-01    1.8979e+05 ;    C23 - C24   
    24     36   1    1.4241e-01    2.3870e+05 ;    C23 - O8    
    24     66   1    1.0984e-01    2.8620e+05 ;    C23 - HC16  
    25     26   1    1.5384e-01    1.8979e+05 ;    C24 - C25   
    25     37   1    1.4241e-01    2.3870e+05 ;    C24 - O9    
    25     67   1    1.0984e-01    2.8620e+05 ;    C24 - HC17  
    26     38   1    1.4241e-01    2.3870e+05 ;    C25 - O10   
    26     68   1    1.0984e-01    2.8620e+05 ;    C25 - HC18  
    27     39   1    1.4242e-01    2.3861e+05 ;    C26 - O11   
    27     69   1    1.0969e-01    2.8804e+05 ;    C26 - HC19  
    27     70   1    1.0969e-01    2.8804e+05 ;    C26 - HC20  
    32     42   1    9.7250e-02    4.4811e+05 ;     O4 - H     
    33     43   1    9.7250e-02    4.4811e+05 ;     O5 - H1    
    36     44   1    9.7250e-02    4.4811e+05 ;     O8 - H2    
    37     45   1    9.7250e-02    4.4811e+05 ;     O9 - H3    
    38     46   1    9.7250e-02    4.4811e+05 ;    O10 - H4    
    39     47   1    9.7250e-02    4.4811e+05 ;    O11 - H5    
    40     48   1    9.7250e-02    4.4811e+05 ;    O12 - H6    
    41     49   1    9.7250e-02    4.4811e+05 ;    O13 - H7    

[ pairs ]
;   ai     aj    funct
     1      5      1 ;      C - C4    
     1      7      1 ;      C - C6    
     1     14      1 ;      C - C13   
     1     21      1 ;      C - C20   
     1     27      1 ;      C - C26   
     1     40      1 ;      C - O12   
     1     51      1 ;      C - HC1   
     1     52      1 ;      C - HC2   
     2      4      1 ;     C1 - C3    
     2     40      1 ;     C1 - O12   
     2     47      1 ;     C1 - H5    
     2     49      1 ;     C1 - H7    
     2     52      1 ;     C1 - HC2   
     3     21      1 ;     C2 - C20   
     3     27      1 ;     C2 - C26   
     3     49      1 ;     C2 - H7    
     3     51      1 ;     C2 - HC1   
     4      6      1 ;     C3 - C5    
     4     26      1 ;     C3 - C25   
     4     35      1 ;     C3 - O7    
     4     41      1 ;     C3 - O13   
     4     48      1 ;     C3 - H6    
     4     54      1 ;     C3 - HC4   
     4     64      1 ;     C3 - HC14  
     5     34      1 ;     C4 - O6    
     5     39      1 ;     C4 - O11   
     5     48      1 ;     C4 - H6    
     5     53      1 ;     C4 - HC3   
     5     69      1 ;     C4 - HC19  
     5     70      1 ;     C4 - HC20  
     6      9      1 ;     C5 - C8    
     6     30      1 ;     C5 - O2    
     6     33      1 ;     C5 - O5    
     7     10      1 ;     C6 - C9    
     7     12      1 ;     C6 - C11   
     7     13      1 ;     C6 - C12   
     7     59      1 ;     C6 - HC9   
     8     11      1 ;     C7 - C10   
     8     14      1 ;     C7 - C13   
     8     15      1 ;     C7 - C14   
     8     29      1 ;     C7 - O1    
     8     31      1 ;     C7 - O3    
     8     33      1 ;     C7 - O5    
     8     56      1 ;     C7 - HC6   
     9     10      1 ;     C8 - C9    
     9     43      1 ;     C8 - H1    
     9     55      1 ;     C8 - HC5   
     9     57      1 ;     C8 - HC7   
     9     58      1 ;     C8 - HC8   
     9     59      1 ;     C8 - HC9   
    10     17      1 ;     C9 - C16   
    10     19      1 ;     C9 - C18   
    10     31      1 ;     C9 - O3    
    10     60      1 ;     C9 - HC10  
    10     63      1 ;     C9 - HC13  
    11     13      1 ;    C10 - C12   
    11     16      1 ;    C10 - C15   
    11     20      1 ;    C10 - C19   
    12     14      1 ;    C11 - C13   
    12     15      1 ;    C11 - C14   
    12     30      1 ;    C11 - O2    
    12     33      1 ;    C11 - O5    
    12     56      1 ;    C11 - HC6   
    13     29      1 ;    C12 - O1    
    13     30      1 ;    C12 - O2    
    13     31      1 ;    C12 - O3    
    14     43      1 ;    C13 - H1    
    14     55      1 ;    C13 - HC5   
    15     18      1 ;    C14 - C17   
    15     57      1 ;    C14 - HC7   
    15     58      1 ;    C14 - HC8   
    15     61      1 ;    C14 - HC11  
    15     62      1 ;    C14 - HC12  
    16     19      1 ;    C15 - C18   
    16     30      1 ;    C15 - O2    
    16     32      1 ;    C15 - O4    
    16     56      1 ;    C15 - HC6   
    16     63      1 ;    C15 - HC13  
    17     20      1 ;    C16 - C19   
    17     42      1 ;    C16 - H     
    17     62      1 ;    C16 - HC12  
    18     60      1 ;    C17 - HC10  
    18     63      1 ;    C17 - HC13  
    19     42      1 ;    C18 - H     
    19     61      1 ;    C18 - HC11  
    20     30      1 ;    C19 - O2    
    20     32      1 ;    C19 - O4    
    20     56      1 ;    C19 - HC6   
    20     60      1 ;    C19 - HC10  
    21     23      1 ;    C20 - C22   
    21     24      1 ;    C20 - C23   
    21     37      1 ;    C20 - O9    
    21     46      1 ;    C20 - H4    
    21     53      1 ;    C20 - HC3   
    21     65      1 ;    C20 - HC15  
    21     67      1 ;    C20 - HC17  
    22     26      1 ;    C21 - C25   
    22     34      1 ;    C21 - O6    
    22     37      1 ;    C21 - O9    
    22     44      1 ;    C21 - H2    
    22     64      1 ;    C21 - HC14  
    22     67      1 ;    C21 - HC17  
    23     25      1 ;    C22 - C24   
    23     36      1 ;    C22 - O8    
    23     66      1 ;    C22 - HC16  
    24     38      1 ;    C23 - O10   
    24     45      1 ;    C23 - H3    
    24     68      1 ;    C23 - HC18  
    24     71      1 ;    C23 - HC21  
    24     72      1 ;    C23 - HC22  
    24     73      1 ;    C23 - HC23  
    25     34      1 ;    C24 - O6    
    25     35      1 ;    C24 - O7    
    25     44      1 ;    C24 - H2    
    25     46      1 ;    C24 - H4    
    25     64      1 ;    C24 - HC14  
    25     65      1 ;    C24 - HC15  
    26     36      1 ;    C25 - O8    
    26     45      1 ;    C25 - H3    
    26     66      1 ;    C25 - HC16  
    27     41      1 ;    C26 - O13   
    27     54      1 ;    C26 - HC4   
    28      3      1 ;      O - C2    
    28      6      1 ;      O - C5    
    28     34      1 ;      O - O6    
    28     39      1 ;      O - O11   
    28     41      1 ;      O - O13   
    28     53      1 ;      O - HC3   
    28     54      1 ;      O - HC4   
    28     69      1 ;      O - HC19  
    28     70      1 ;      O - HC20  
    29      2      1 ;     O1 - C1    
    29      3      1 ;     O1 - C2    
    29     34      1 ;     O1 - O6    
    29     53      1 ;     O1 - HC3   
    29     55      1 ;     O1 - HC5   
    29     59      1 ;     O1 - HC9   
    30     55      1 ;     O2 - HC5   
    30     57      1 ;     O2 - HC7   
    30     58      1 ;     O2 - HC8   
    31     57      1 ;     O3 - HC7   
    31     58      1 ;     O3 - HC8   
    32     61      1 ;     O4 - HC11  
    32     62      1 ;     O4 - HC12  
    33     59      1 ;     O5 - HC9   
    34     38      1 ;     O6 - O10   
    34     40      1 ;     O6 - O12   
    34     52      1 ;     O6 - HC2   
    34     68      1 ;     O6 - HC18  
    35     36      1 ;     O7 - O8    
    35     38      1 ;     O7 - O10   
    35     66      1 ;     O7 - HC16  
    35     68      1 ;     O7 - HC18  
    35     71      1 ;     O7 - HC21  
    35     72      1 ;     O7 - HC22  
    35     73      1 ;     O7 - HC23  
    36     37      1 ;     O8 - O9    
    36     65      1 ;     O8 - HC15  
    36     67      1 ;     O8 - HC17  
    37     38      1 ;     O9 - O10   
    37     66      1 ;     O9 - HC16  
    37     68      1 ;     O9 - HC18  
    38     64      1 ;    O10 - HC14  
    38     67      1 ;    O10 - HC17  
    39     51      1 ;    O11 - HC1   
    40     41      1 ;    O12 - O13   
    40     53      1 ;    O12 - HC3   
    40     54      1 ;    O12 - HC4   
    41     51      1 ;    O13 - HC1   
    41     52      1 ;    O13 - HC2   
    44     66      1 ;     H2 - HC16  
    45     67      1 ;     H3 - HC17  
    46     68      1 ;     H4 - HC18  
    47     69      1 ;     H5 - HC19  
    47     70      1 ;     H5 - HC20  
    48     52      1 ;     H6 - HC2   
    49     54      1 ;     H7 - HC4   
    50      2      1 ;     HC - C1    
    50      3      1 ;     HC - C2    
    50      6      1 ;     HC - C5    
    50     34      1 ;     HC - O6    
    50     53      1 ;     HC - HC3   
    51     54      1 ;    HC1 - HC4   
    51     69      1 ;    HC1 - HC19  
    51     70      1 ;    HC1 - HC20  
    52     53      1 ;    HC2 - HC3   
    52     54      1 ;    HC2 - HC4   
    56     57      1 ;    HC6 - HC7   
    56     58      1 ;    HC6 - HC8   
    60     61      1 ;   HC10 - HC11  
    62     63      1 ;   HC12 - HC13  
    64     68      1 ;   HC14 - HC18  
    65     66      1 ;   HC15 - HC16  
    65     71      1 ;   HC15 - HC21  
    65     72      1 ;   HC15 - HC22  
    65     73      1 ;   HC15 - HC23  
    66     67      1 ;   HC16 - HC17  
    67     68      1 ;   HC17 - HC18  

[ angles ]
;   ai     aj     ak    funct   theta         cth
     1      4      3      1    1.1106e+02    5.0359e+02 ;      C - C3     - C2    
     1      4     34      1    1.1009e+02    6.3948e+02 ;      C - C3     - O6    
     1      4     53      1    1.0918e+02    3.6217e+02 ;      C - C3     - HC3   
     1     28      2      1    1.1330e+02    7.3873e+02 ;      C - O      - C1    
     1     29      6      1    1.1677e+02    7.4291e+02 ;      C - O1     - C5    
     2      5      3      1    1.1106e+02    5.0359e+02 ;     C1 - C4     - C2    
     2      5     41      1    1.1005e+02    6.4065e+02 ;     C1 - C4     - O13   
     2      5     54      1    1.0918e+02    3.6217e+02 ;     C1 - C4     - HC4   
     2     27     39      1    1.1145e+02    6.3555e+02 ;     C1 - C26    - O11   
     2     27     69      1    1.0913e+02    3.6141e+02 ;     C1 - C26    - HC19  
     2     27     70      1    1.0913e+02    3.6141e+02 ;     C1 - C26    - HC20  
     3      4     34      1    1.1009e+02    6.3948e+02 ;     C2 - C3     - O6    
     3      4     53      1    1.0918e+02    3.6217e+02 ;     C2 - C3     - HC3   
     3      5     41      1    1.1005e+02    6.4065e+02 ;     C2 - C4     - O13   
     3      5     54      1    1.0918e+02    3.6217e+02 ;     C2 - C4     - HC4   
     3     40     48      1    1.0707e+02    5.4584e+02 ;     C2 - O12    - H6    
     4      1     28      1    1.1009e+02    6.3948e+02 ;     C3 - C      - O     
     4      1     29      1    1.1009e+02    6.3948e+02 ;     C3 - C      - O1    
     4      1     50      1    1.0998e+02    3.6083e+02 ;     C3 - C      - HC    
     4      3      5      1    1.1106e+02    5.0359e+02 ;     C3 - C2     - C4    
     4      3     40      1    1.1005e+02    6.4065e+02 ;     C3 - C2     - O12   
     4      3     52      1    1.0918e+02    3.6217e+02 ;     C3 - C2     - HC2   
     4     34     21      1    1.1330e+02    7.3873e+02 ;     C3 - O6     - C20   
     5      2     27      1    1.1143e+02    5.0200e+02 ;     C4 - C1     - C26   
     5      2     28      1    1.1009e+02    6.3948e+02 ;     C4 - C1     - O     
     5      2     51      1    1.0918e+02    3.6217e+02 ;     C4 - C1     - HC1   
     5      3     40      1    1.1005e+02    6.4065e+02 ;     C4 - C2     - O12   
     5      3     52      1    1.0918e+02    3.6217e+02 ;     C4 - C2     - HC2   
     5     41     49      1    1.0707e+02    5.4584e+02 ;     C4 - O13    - H7    
     6      7      8      1    1.2002e+02    5.3279e+02 ;     C5 - C6     - C7    
     6      7     55      1    1.1988e+02    3.7572e+02 ;     C5 - C6     - HC5   
     6     14     13      1    1.2002e+02    5.3279e+02 ;     C5 - C13    - C12   
     6     14     59      1    1.1988e+02    3.7572e+02 ;     C5 - C13    - HC9   
     7      6     14      1    1.2002e+02    5.3279e+02 ;     C6 - C5     - C13   
     7      6     29      1    1.1911e+02    6.6107e+02 ;     C6 - C5     - O1    
     7      8      9      1    1.2002e+02    5.3279e+02 ;     C6 - C7     - C8    
     7      8     30      1    1.1911e+02    6.6107e+02 ;     C6 - C7     - O2    
     8      7     55      1    1.1988e+02    3.7572e+02 ;     C7 - C6     - HC5   
     8      9     12      1    1.2033e+02    5.1413e+02 ;     C7 - C8     - C11   
     8      9     13      1    1.2002e+02    5.3279e+02 ;     C7 - C8     - C12   
     8     30     10      1    1.1677e+02    7.4291e+02 ;     C7 - O2     - C9    
     9      8     30      1    1.1911e+02    6.6107e+02 ;     C8 - C7     - O2    
     9     12     11      1    1.1680e+02    5.0024e+02 ;     C8 - C11    - C10   
     9     12     31      1    1.2260e+02    6.5237e+02 ;     C8 - C11    - O3    
     9     13     14      1    1.2002e+02    5.3279e+02 ;     C8 - C12    - C13   
     9     13     33      1    1.1990e+02    6.5990e+02 ;     C8 - C12    - O5    
    10     11     12      1    1.1143e+02    5.0434e+02 ;     C9 - C10    - C11   
    10     11     57      1    1.0945e+02    3.6175e+02 ;     C9 - C10    - HC7   
    10     11     58      1    1.0945e+02    3.6175e+02 ;     C9 - C10    - HC8   
    10     15     16      1    1.2060e+02    5.0760e+02 ;     C9 - C14    - C15   
    10     15     20      1    1.2060e+02    5.0760e+02 ;     C9 - C14    - C19   
    11     10     15      1    1.1197e+02    5.0442e+02 ;    C10 - C9     - C14   
    11     10     30      1    1.1009e+02    6.3948e+02 ;    C10 - C9     - O2    
    11     10     56      1    1.0918e+02    3.6217e+02 ;    C10 - C9     - HC6   
    11     12     31      1    1.2234e+02    6.4065e+02 ;    C10 - C11    - O3    
    12      9     13      1    1.2033e+02    5.1413e+02 ;    C11 - C8     - C12   
    12     11     57      1    1.0767e+02    3.6685e+02 ;    C11 - C10    - HC7   
    12     11     58      1    1.0767e+02    3.6685e+02 ;    C11 - C10    - HC8   
    13     14     59      1    1.1988e+02    3.7572e+02 ;    C12 - C13    - HC9   
    13     33     43      1    1.0858e+02    5.6409e+02 ;    C12 - O5     - H1    
    14      6     29      1    1.1911e+02    6.6107e+02 ;    C13 - C5     - O1    
    14     13     33      1    1.1990e+02    6.5990e+02 ;    C13 - C12    - O5    
    15     10     30      1    1.0854e+02    6.4852e+02 ;    C14 - C9     - O2    
    15     10     56      1    1.0893e+02    3.6652e+02 ;    C14 - C9     - HC6   
    15     16     17      1    1.2002e+02    5.3279e+02 ;    C14 - C15    - C16   
    15     16     60      1    1.1988e+02    3.7572e+02 ;    C14 - C15    - HC10  
    15     20     19      1    1.2002e+02    5.3279e+02 ;    C14 - C19    - C18   
    15     20     63      1    1.1988e+02    3.7572e+02 ;    C14 - C19    - HC13  
    16     15     20      1    1.2002e+02    5.3279e+02 ;    C15 - C14    - C19   
    16     17     18      1    1.2002e+02    5.3279e+02 ;    C15 - C16    - C17   
    16     17     61      1    1.1988e+02    3.7572e+02 ;    C15 - C16    - HC11  
    17     16     60      1    1.1988e+02    3.7572e+02 ;    C16 - C15    - HC10  
    17     18     19      1    1.2002e+02    5.3279e+02 ;    C16 - C17    - C18   
    17     18     32      1    1.1990e+02    6.5990e+02 ;    C16 - C17    - O4    
    18     17     61      1    1.1988e+02    3.7572e+02 ;    C17 - C16    - HC11  
    18     19     20      1    1.2002e+02    5.3279e+02 ;    C17 - C18    - C19   
    18     19     62      1    1.1988e+02    3.7572e+02 ;    C17 - C18    - HC12  
    18     32     42      1    1.0858e+02    5.6409e+02 ;    C17 - O4     - H     
    19     18     32      1    1.1990e+02    6.5990e+02 ;    C18 - C17    - O4    
    19     20     63      1    1.1988e+02    3.7572e+02 ;    C18 - C19    - HC13  
    20     19     62      1    1.1988e+02    3.7572e+02 ;    C19 - C18    - HC12  
    21     26     25      1    1.1106e+02    5.0359e+02 ;    C20 - C25    - C24   
    21     26     38      1    1.1005e+02    6.4065e+02 ;    C20 - C25    - O10   
    21     26     68      1    1.0918e+02    3.6217e+02 ;    C20 - C25    - HC18  
    21     35     22      1    1.1330e+02    7.3873e+02 ;    C20 - O7     - C21   
    22     23     71      1    1.1063e+02    3.5890e+02 ;    C21 - C22    - HC21  
    22     23     72      1    1.1063e+02    3.5890e+02 ;    C21 - C22    - HC22  
    22     23     73      1    1.1063e+02    3.5890e+02 ;    C21 - C22    - HC23  
    22     24     25      1    1.1106e+02    5.0359e+02 ;    C21 - C23    - C24   
    22     24     36      1    1.1005e+02    6.4065e+02 ;    C21 - C23    - O8    
    22     24     66      1    1.0918e+02    3.6217e+02 ;    C21 - C23    - HC16  
    23     22     24      1    1.1143e+02    5.0200e+02 ;    C22 - C21    - C23   
    23     22     35      1    1.0683e+02    6.4810e+02 ;    C22 - C21    - O7    
    23     22     65      1    1.0855e+02    3.6233e+02 ;    C22 - C21    - HC15  
    24     22     35      1    1.1009e+02    6.3948e+02 ;    C23 - C21    - O7    
    24     22     65      1    1.0918e+02    3.6217e+02 ;    C23 - C21    - HC15  
    24     25     26      1    1.1106e+02    5.0359e+02 ;    C23 - C24    - C25   
    24     25     37      1    1.1005e+02    6.4065e+02 ;    C23 - C24    - O9    
    24     25     67      1    1.0918e+02    3.6217e+02 ;    C23 - C24    - HC17  
    24     36     44      1    1.0707e+02    5.4584e+02 ;    C23 - O8     - H2    
    25     24     36      1    1.1005e+02    6.4065e+02 ;    C24 - C23    - O8    
    25     24     66      1    1.0918e+02    3.6217e+02 ;    C24 - C23    - HC16  
    25     26     38      1    1.1005e+02    6.4065e+02 ;    C24 - C25    - O10   
    25     26     68      1    1.0918e+02    3.6217e+02 ;    C24 - C25    - HC18  
    25     37     45      1    1.0707e+02    5.4584e+02 ;    C24 - O9     - H3    
    26     21     34      1    1.1009e+02    6.3948e+02 ;    C25 - C20    - O6    
    26     21     35      1    1.1009e+02    6.3948e+02 ;    C25 - C20    - O7    
    26     21     64      1    1.0998e+02    3.6083e+02 ;    C25 - C20    - HC14  
    26     25     37      1    1.1005e+02    6.4065e+02 ;    C25 - C24    - O9    
    26     25     67      1    1.0918e+02    3.6217e+02 ;    C25 - C24    - HC17  
    26     38     46      1    1.0707e+02    5.4584e+02 ;    C25 - O10    - H4    
    27      2     28      1    1.0683e+02    6.4810e+02 ;    C26 - C1     - O     
    27      2     51      1    1.0855e+02    3.6233e+02 ;    C26 - C1     - HC1   
    27     39     47      1    1.0739e+02    5.4501e+02 ;    C26 - O11    - H5    
    28      1     29      1    1.0950e+02    8.1613e+02 ;      O - C      - O1    
    28      1     50      1    1.0944e+02    4.7137e+02 ;      O - C      - HC    
    28      2     51      1    1.0808e+02    4.7430e+02 ;      O - C1     - HC1   
    29      1     50      1    1.0944e+02    4.7137e+02 ;     O1 - C      - HC    
    30     10     56      1    1.0808e+02    4.7430e+02 ;     O2 - C9     - HC6   
    34      4     53      1    1.0808e+02    4.7430e+02 ;     O6 - C3     - HC3   
    34     21     35      1    1.0950e+02    8.1613e+02 ;     O6 - C20    - O7    
    34     21     64      1    1.0944e+02    4.7137e+02 ;     O6 - C20    - HC14  
    35     21     64      1    1.0944e+02    4.7137e+02 ;     O7 - C20    - HC14  
    35     22     65      1    1.0808e+02    4.7430e+02 ;     O7 - C21    - HC15  
    36     24     66      1    1.0996e+02    4.7187e+02 ;     O8 - C23    - HC16  
    37     25     67      1    1.0996e+02    4.7187e+02 ;     O9 - C24    - HC17  
    38     26     68      1    1.0996e+02    4.7187e+02 ;    O10 - C25    - HC18  
    39     27     69      1    1.1038e+02    4.7103e+02 ;    O11 - C26    - HC19  
    39     27     70      1    1.1038e+02    4.7103e+02 ;    O11 - C26    - HC20  
    40      3     52      1    1.0996e+02    4.7187e+02 ;    O12 - C2     - HC2   
    41      5     54      1    1.0996e+02    4.7187e+02 ;    O13 - C4     - HC4   
    57     11     58      1    1.0662e+02    3.0066e+02 ;    HC7 - C10    - HC8   
    69     27     70      1    1.0855e+02    2.9824e+02 ;   HC19 - C26    - HC20  
    71     23     72      1    1.0773e+02    2.9957e+02 ;   HC21 - C22    - HC22  
    71     23     73      1    1.0773e+02    2.9957e+02 ;   HC21 - C22    - HC23  
    72     23     73      1    1.0773e+02    2.9957e+02 ;   HC22 - C22    - HC23  

[ dihedrals ] ; propers
; for gromacs 4.5 or higher, using funct 9
;    i      j      k      l   func   phase     kd      pn
     1      4      3      5      9     0.00   2.17568   3 ;      C-    C3-    C2-    C4
     1      4      3     40      9     0.00   0.75312   3 ;      C-    C3-    C2-   O12
     1      4      3     52      9     0.00   0.65084   3 ;      C-    C3-    C2-   HC2
     1      4     34     21      9     0.00   4.85344   3 ;      C-    C3-    O6-   C20
     1      4     34     21      9     0.00   5.77392   2 ;      C-    C3-    O6-   C20
     1      4     34     21      9   180.00   1.46440   1 ;      C-    C3-    O6-   C20
     1     28      2      5      9     0.00   4.85344   3 ;      C-     O-    C1-    C4
     1     28      2      5      9     0.00   5.77392   2 ;      C-     O-    C1-    C4
     1     28      2      5      9   180.00   1.46440   1 ;      C-     O-    C1-    C4
     1     28      2     27      9     0.00   0.33472   2 ;      C-     O-    C1-   C26
     1     28      2     27      9     0.00   3.13800   3 ;      C-     O-    C1-   C26
     1     28      2     27      9   180.00   3.68192   1 ;      C-     O-    C1-   C26
     1     28      2     51      9     0.00   1.41001   3 ;      C-     O-    C1-   HC1
     1     29      6      7      9   180.00   6.94544   2 ;      C-    O1-    C5-    C6
     1     29      6     14      9   180.00   6.94544   2 ;      C-    O1-    C5-   C13
     2      5      3      4      9     0.00   2.17568   3 ;     C1-    C4-    C2-    C3
     2      5      3     40      9     0.00   0.75312   3 ;     C1-    C4-    C2-   O12
     2      5      3     52      9     0.00   0.65084   3 ;     C1-    C4-    C2-   HC2
     2      5     41     49      9     0.00   0.25104   3 ;     C1-    C4-   O13-    H7
     2     27     39     47      9     0.00   0.25104   3 ;     C1-   C26-   O11-    H5
     3      4     34     21      9     0.00   4.85344   3 ;     C2-    C3-    O6-   C20
     3      4     34     21      9     0.00   5.77392   2 ;     C2-    C3-    O6-   C20
     3      4     34     21      9   180.00   1.46440   1 ;     C2-    C3-    O6-   C20
     3      5      2     27      9     0.00   2.17568   3 ;     C2-    C4-    C1-   C26
     3      5      2     28      9     0.00   0.65084   3 ;     C2-    C4-    C1-     O
     3      5      2     51      9     0.00   0.65084   3 ;     C2-    C4-    C1-   HC1
     3      5     41     49      9     0.00   0.25104   3 ;     C2-    C4-   O13-    H7
     4      1     28      2      9     0.00   4.85344   3 ;     C3-     C-     O-    C1
     4      1     28      2      9     0.00   5.77392   2 ;     C3-     C-     O-    C1
     4      1     28      2      9   180.00   1.46440   1 ;     C3-     C-     O-    C1
     4      1     29      6      9     0.00   1.60387   3 ;     C3-     C-    O1-    C5
     4      3      5     41      9     0.00   0.75312   3 ;     C3-    C2-    C4-   O13
     4      3      5     54      9     0.00   0.65084   3 ;     C3-    C2-    C4-   HC4
     4      3     40     48      9     0.00   0.25104   3 ;     C3-    C2-   O12-    H6
     4     34     21     26      9     0.00   4.85344   3 ;     C3-    O6-   C20-   C25
     4     34     21     26      9     0.00   5.77392   2 ;     C3-    O6-   C20-   C25
     4     34     21     26      9   180.00   1.46440   1 ;     C3-    O6-   C20-   C25
     4     34     21     35      9     0.00   0.12552   3 ;     C3-    O6-   C20-    O7
     4     34     21     35      9     0.00   6.23416   2 ;     C3-    O6-   C20-    O7
     4     34     21     35      9   180.00   3.68192   1 ;     C3-    O6-   C20-    O7
     4     34     21     64      9     0.00   1.60387   3 ;     C3-    O6-   C20-  HC14
     5      2     27     39      9     0.00   0.75312   3 ;     C4-    C1-   C26-   O11
     5      2     27     69      9     0.00   0.65084   3 ;     C4-    C1-   C26-  HC19
     5      2     27     70      9     0.00   0.65084   3 ;     C4-    C1-   C26-  HC20
     5      3      4     34      9     0.00   0.65084   3 ;     C4-    C2-    C3-    O6
     5      3      4     53      9     0.00   0.65084   3 ;     C4-    C2-    C3-   HC3
     5      3     40     48      9     0.00   0.25104   3 ;     C4-    C2-   O12-    H6
     6      7      8      9      9   180.00  15.16700   2 ;     C5-    C6-    C7-    C8
     6      7      8     30      9   180.00  15.16700   2 ;     C5-    C6-    C7-    O2
     6     14     13      9      9   180.00  15.16700   2 ;     C5-   C13-   C12-    C8
     6     14     13     33      9   180.00  15.16700   2 ;     C5-   C13-   C12-    O5
     7      6     14     13      9   180.00  15.16700   2 ;     C6-    C5-   C13-   C12
     7      6     14     59      9   180.00  15.16700   2 ;     C6-    C5-   C13-   HC9
     7      8      9     12      9   180.00  15.16700   2 ;     C6-    C7-    C8-   C11
     7      8      9     13      9   180.00  15.16700   2 ;     C6-    C7-    C8-   C12
     7      8     30     10      9   180.00   6.94544   2 ;     C6-    C7-    O2-    C9
     8      7      6     14      9   180.00  15.16700   2 ;     C7-    C6-    C5-   C13
     8      7      6     29      9   180.00  15.16700   2 ;     C7-    C6-    C5-    O1
     8      9     12     11      9   180.00   4.40157   2 ;     C7-    C8-   C11-   C10
     8      9     12     31      9   180.00   2.42672   2 ;     C7-    C8-   C11-    O3
     8      9     13     14      9   180.00  15.16700   2 ;     C7-    C8-   C12-   C13
     8      9     13     33      9   180.00  15.16700   2 ;     C7-    C8-   C12-    O5
     8     30     10     11      9     0.00   1.60387   3 ;     C7-    O2-    C9-   C10
     8     30     10     15      9     0.00   1.60387   3 ;     C7-    O2-    C9-   C14
     8     30     10     56      9     0.00   1.60387   3 ;     C7-    O2-    C9-   HC6
     9      8      7     55      9   180.00  15.16700   2 ;     C8-    C7-    C6-   HC5
     9      8     30     10      9   180.00   6.94544   2 ;     C8-    C7-    O2-    C9
     9     12     11     10      9   180.00   0.00000   2 ;     C8-   C11-   C10-    C9
     9     12     11     57      9   180.00   0.00000   2 ;     C8-   C11-   C10-   HC7
     9     12     11     58      9   180.00   0.00000   2 ;     C8-   C11-   C10-   HC8
     9     13     14     59      9   180.00  15.16700   2 ;     C8-   C12-   C13-   HC9
     9     13     33     43      9   180.00   3.57732   2 ;     C8-   C12-    O5-    H1
    10     11     12     31      9     0.00   0.46024   2 ;     C9-   C10-   C11-    O3
    10     11     12     31      9     0.00  49.12016   1 ;     C9-   C10-   C11-    O3
    10     11     12     31      9   180.00   0.33472   3 ;     C9-   C10-   C11-    O3
    10     15     16     17      9   180.00  15.16700   2 ;     C9-   C14-   C15-   C16
    10     15     16     60      9   180.00  15.16700   2 ;     C9-   C14-   C15-  HC10
    10     15     20     19      9   180.00  15.16700   2 ;     C9-   C14-   C19-   C18
    10     15     20     63      9   180.00  15.16700   2 ;     C9-   C14-   C19-  HC13
    11     10     15     16      9   180.00   1.00416   2 ;    C10-    C9-   C14-   C15
    11     10     15     20      9   180.00   1.00416   2 ;    C10-    C9-   C14-   C19
    11     12      9     13      9   180.00   4.40157   2 ;    C10-   C11-    C8-   C12
    12      9      8     30      9   180.00  15.16700   2 ;    C11-    C8-    C7-    O2
    12      9     13     14      9   180.00  15.16700   2 ;    C11-    C8-   C12-   C13
    12      9     13     33      9   180.00  15.16700   2 ;    C11-    C8-   C12-    O5
    12     11     10     15      9     0.00   3.43088   1 ;    C11-   C10-    C9-   C14
    12     11     10     30      9     0.00   0.65084   3 ;    C11-   C10-    C9-    O2
    12     11     10     56      9     0.00   0.65084   3 ;    C11-   C10-    C9-   HC6
    13      9      8     30      9   180.00  15.16700   2 ;    C12-    C8-    C7-    O2
    13      9     12     31      9   180.00   2.42672   2 ;    C12-    C8-   C11-    O3
    13     14      6     29      9   180.00  15.16700   2 ;    C12-   C13-    C5-    O1
    14      6      7     55      9   180.00  15.16700   2 ;    C13-    C5-    C6-   HC5
    14     13     33     43      9   180.00   3.57732   2 ;    C13-   C12-    O5-    H1
    15     10     11     57      9     0.00   0.65084   3 ;    C14-    C9-   C10-   HC7
    15     10     11     58      9     0.00   0.65084   3 ;    C14-    C9-   C10-   HC8
    15     16     17     18      9   180.00  15.16700   2 ;    C14-   C15-   C16-   C17
    15     16     17     61      9   180.00  15.16700   2 ;    C14-   C15-   C16-  HC11
    15     20     19     18      9   180.00  15.16700   2 ;    C14-   C19-   C18-   C17
    15     20     19     62      9   180.00  15.16700   2 ;    C14-   C19-   C18-  HC12
    16     15     10     30      9     0.00   0.00000   0 ;    C15-   C14-    C9-    O2
    16     15     10     56      9     0.00   0.00000   0 ;    C15-   C14-    C9-   HC6
    16     15     20     19      9   180.00  15.16700   2 ;    C15-   C14-   C19-   C18
    16     15     20     63      9   180.00  15.16700   2 ;    C15-   C14-   C19-  HC13
    16     17     18     19      9   180.00  15.16700   2 ;    C15-   C16-   C17-   C18
    16     17     18     32      9   180.00  15.16700   2 ;    C15-   C16-   C17-    O4
    17     16     15     20      9   180.00  15.16700   2 ;    C16-   C15-   C14-   C19
    17     18     19     20      9   180.00  15.16700   2 ;    C16-   C17-   C18-   C19
    17     18     19     62      9   180.00  15.16700   2 ;    C16-   C17-   C18-  HC12
    17     18     32     42      9   180.00   3.57732   2 ;    C16-   C17-    O4-     H
    18     17     16     60      9   180.00  15.16700   2 ;    C17-   C16-   C15-  HC10
    18     19     20     63      9   180.00  15.16700   2 ;    C17-   C18-   C19-  HC13
    19     18     17     61      9   180.00  15.16700   2 ;    C18-   C17-   C16-  HC11
    19     18     32     42      9   180.00   3.57732   2 ;    C18-   C17-    O4-     H
    20     15     10     30      9     0.00   0.00000   0 ;    C19-   C14-    C9-    O2
    20     15     10     56      9     0.00   0.00000   0 ;    C19-   C14-    C9-   HC6
    20     15     16     60      9   180.00  15.16700   2 ;    C19-   C14-   C15-  HC10
    20     19     18     32      9   180.00  15.16700   2 ;    C19-   C18-   C17-    O4
    21     26     25     24      9     0.00   2.17568   3 ;    C20-   C25-   C24-   C23
    21     26     25     37      9     0.00   0.75312   3 ;    C20-   C25-   C24-    O9
    21     26     25     67      9     0.00   0.65084   3 ;    C20-   C25-   C24-  HC17
    21     26     38     46      9     0.00   0.25104   3 ;    C20-   C25-   O10-    H4
    21     34      4     53      9     0.00   1.41001   3 ;    C20-    O6-    C3-   HC3
    21     35     22     23      9     0.00   0.33472   2 ;    C20-    O7-   C21-   C22
    21     35     22     23      9     0.00   3.13800   3 ;    C20-    O7-   C21-   C22
    21     35     22     23      9   180.00   3.68192   1 ;    C20-    O7-   C21-   C22
    21     35     22     24      9     0.00   4.85344   3 ;    C20-    O7-   C21-   C23
    21     35     22     24      9     0.00   5.77392   2 ;    C20-    O7-   C21-   C23
    21     35     22     24      9   180.00   1.46440   1 ;    C20-    O7-   C21-   C23
    21     35     22     65      9     0.00   1.41001   3 ;    C20-    O7-   C21-  HC15
    22     24     25     26      9     0.00   2.17568   3 ;    C21-   C23-   C24-   C25
    22     24     25     37      9     0.00   0.75312   3 ;    C21-   C23-   C24-    O9
    22     24     25     67      9     0.00   0.65084   3 ;    C21-   C23-   C24-  HC17
    22     24     36     44      9     0.00   0.25104   3 ;    C21-   C23-    O8-    H2
    22     35     21     26      9     0.00   4.85344   3 ;    C21-    O7-   C20-   C25
    22     35     21     26      9     0.00   5.77392   2 ;    C21-    O7-   C20-   C25
    22     35     21     26      9   180.00   1.46440   1 ;    C21-    O7-   C20-   C25
    22     35     21     34      9     0.00   0.12552   3 ;    C21-    O7-   C20-    O6
    22     35     21     34      9     0.00   6.23416   2 ;    C21-    O7-   C20-    O6
    22     35     21     34      9   180.00   3.68192   1 ;    C21-    O7-   C20-    O6
    22     35     21     64      9     0.00   1.60387   3 ;    C21-    O7-   C20-  HC14
    23     22     24     25      9     0.00   2.17568   3 ;    C22-   C21-   C23-   C24
    23     22     24     36      9     0.00   0.75312   3 ;    C22-   C21-   C23-    O8
    23     22     24     66      9     0.00   0.65084   3 ;    C22-   C21-   C23-  HC16
    24     22     23     71      9     0.00   0.54392   3 ;    C23-   C21-   C22-  HC21
    24     22     23     72      9     0.00   0.54392   3 ;    C23-   C21-   C22-  HC22
    24     22     23     73      9     0.00   0.54392   3 ;    C23-   C21-   C22-  HC23
    24     25     26     38      9     0.00   0.75312   3 ;    C23-   C24-   C25-   O10
    24     25     26     68      9     0.00   0.65084   3 ;    C23-   C24-   C25-  HC18
    24     25     37     45      9     0.00   0.25104   3 ;    C23-   C24-    O9-    H3
    25     24     22     35      9     0.00   0.65084   3 ;    C24-   C23-   C21-    O7
    25     24     22     65      9     0.00   0.65084   3 ;    C24-   C23-   C21-  HC15
    25     24     36     44      9     0.00   0.25104   3 ;    C24-   C23-    O8-    H2
    25     26     21     34      9     0.00   0.65084   3 ;    C24-   C25-   C20-    O6
    25     26     21     35      9     0.00   0.65084   3 ;    C24-   C25-   C20-    O7
    25     26     21     64      9     0.00   0.65084   3 ;    C24-   C25-   C20-  HC14
    25     26     38     46      9     0.00   0.25104   3 ;    C24-   C25-   O10-    H4
    26     25     24     36      9     0.00   0.75312   3 ;    C25-   C24-   C23-    O8
    26     25     24     66      9     0.00   0.65084   3 ;    C25-   C24-   C23-  HC16
    26     25     37     45      9     0.00   0.25104   3 ;    C25-   C24-    O9-    H3
    27      2      5     41      9     0.00   0.75312   3 ;    C26-    C1-    C4-   O13
    27      2      5     54      9     0.00   0.65084   3 ;    C26-    C1-    C4-   HC4
    28      1      4      3      9     0.00   0.65084   3 ;      O-     C-    C3-    C2
    28      1      4     34      9     0.00   0.75312   1 ;      O-     C-    C3-    O6
    28      1      4     34      9     0.00   2.09200   3 ;      O-     C-    C3-    O6
    28      1      4     34      9     0.00   3.76560   2 ;      O-     C-    C3-    O6
    28      1      4     53      9     0.00   0.00000   0 ;      O-     C-    C3-   HC3
    28      1      4     53      9     0.00   1.04600   1 ;      O-     C-    C3-   HC3
    28      1     29      6      9     0.00   1.60387   3 ;      O-     C-    O1-    C5
    28      2      5     41      9     0.00   4.47688   3 ;      O-    C1-    C4-   O13
    28      2      5     41      9   180.00   2.80328   1 ;      O-    C1-    C4-   O13
    28      2      5     41      9   180.00   3.05432   2 ;      O-    C1-    C4-   O13
    28      2      5     54      9     0.00   0.00000   0 ;      O-    C1-    C4-   HC4
    28      2      5     54      9     0.00   1.04600   1 ;      O-    C1-    C4-   HC4
    28      2     27     39      9     0.00   4.47688   3 ;      O-    C1-   C26-   O11
    28      2     27     39      9   180.00   2.80328   1 ;      O-    C1-   C26-   O11
    28      2     27     39      9   180.00   3.05432   2 ;      O-    C1-   C26-   O11
    28      2     27     69      9     0.00   0.00000   0 ;      O-    C1-   C26-  HC19
    28      2     27     69      9     0.00   1.04600   1 ;      O-    C1-   C26-  HC19
    28      2     27     70      9     0.00   0.00000   0 ;      O-    C1-   C26-  HC20
    28      2     27     70      9     0.00   1.04600   1 ;      O-    C1-   C26-  HC20
    29      1      4      3      9     0.00   0.65084   3 ;     O1-     C-    C3-    C2
    29      1      4     34      9     0.00   0.75312   1 ;     O1-     C-    C3-    O6
    29      1      4     34      9     0.00   2.09200   3 ;     O1-     C-    C3-    O6
    29      1      4     34      9     0.00   3.76560   2 ;     O1-     C-    C3-    O6
    29      1      4     53      9     0.00   0.00000   0 ;     O1-     C-    C3-   HC3
    29      1      4     53      9     0.00   1.04600   1 ;     O1-     C-    C3-   HC3
    29      1     28      2      9     0.00   0.12552   3 ;     O1-     C-     O-    C1
    29      1     28      2      9     0.00   6.23416   2 ;     O1-     C-     O-    C1
    29      1     28      2      9   180.00   3.68192   1 ;     O1-     C-     O-    C1
    29      6      7     55      9   180.00  15.16700   2 ;     O1-    C5-    C6-   HC5
    29      6     14     59      9   180.00  15.16700   2 ;     O1-    C5-   C13-   HC9
    30      8      7     55      9   180.00  15.16700   2 ;     O2-    C7-    C6-   HC5
    30     10     11     57      9     0.00   0.00000   0 ;     O2-    C9-   C10-   HC7
    30     10     11     57      9     0.00   1.04600   1 ;     O2-    C9-   C10-   HC7
    30     10     11     58      9     0.00   0.00000   0 ;     O2-    C9-   C10-   HC8
    30     10     11     58      9     0.00   1.04600   1 ;     O2-    C9-   C10-   HC8
    31     12     11     57      9     0.00  16.86152   1 ;     O3-   C11-   C10-   HC7
    31     12     11     57      9   180.00  15.31344   2 ;     O3-   C11-   C10-   HC7
    31     12     11     58      9     0.00  16.86152   1 ;     O3-   C11-   C10-   HC8
    31     12     11     58      9   180.00  15.31344   2 ;     O3-   C11-   C10-   HC8
    32     18     17     61      9   180.00  15.16700   2 ;     O4-   C17-   C16-  HC11
    32     18     19     62      9   180.00  15.16700   2 ;     O4-   C17-   C18-  HC12
    33     13     14     59      9   180.00  15.16700   2 ;     O5-   C12-   C13-   HC9
    34      4      3     40      9     0.00   4.47688   3 ;     O6-    C3-    C2-   O12
    34      4      3     40      9   180.00   2.80328   1 ;     O6-    C3-    C2-   O12
    34      4      3     40      9   180.00   3.05432   2 ;     O6-    C3-    C2-   O12
    34      4      3     52      9     0.00   0.00000   0 ;     O6-    C3-    C2-   HC2
    34      4      3     52      9     0.00   1.04600   1 ;     O6-    C3-    C2-   HC2
    34     21     26     38      9     0.00   4.47688   3 ;     O6-   C20-   C25-   O10
    34     21     26     38      9   180.00   2.80328   1 ;     O6-   C20-   C25-   O10
    34     21     26     38      9   180.00   3.05432   2 ;     O6-   C20-   C25-   O10
    34     21     26     68      9     0.00   0.00000   0 ;     O6-   C20-   C25-  HC18
    34     21     26     68      9     0.00   1.04600   1 ;     O6-   C20-   C25-  HC18
    35     21     26     38      9     0.00   4.47688   3 ;     O7-   C20-   C25-   O10
    35     21     26     38      9   180.00   2.80328   1 ;     O7-   C20-   C25-   O10
    35     21     26     38      9   180.00   3.05432   2 ;     O7-   C20-   C25-   O10
    35     21     26     68      9     0.00   0.00000   0 ;     O7-   C20-   C25-  HC18
    35     21     26     68      9     0.00   1.04600   1 ;     O7-   C20-   C25-  HC18
    35     22     23     71      9     0.00   0.00000   0 ;     O7-   C21-   C22-  HC21
    35     22     23     71      9     0.00   1.04600   1 ;     O7-   C21-   C22-  HC21
    35     22     23     72      9     0.00   0.00000   0 ;     O7-   C21-   C22-  HC22
    35     22     23     72      9     0.00   1.04600   1 ;     O7-   C21-   C22-  HC22
    35     22     23     73      9     0.00   0.00000   0 ;     O7-   C21-   C22-  HC23
    35     22     23     73      9     0.00   1.04600   1 ;     O7-   C21-   C22-  HC23
    35     22     24     36      9     0.00   4.47688   3 ;     O7-   C21-   C23-    O8
    35     22     24     36      9   180.00   2.80328   1 ;     O7-   C21-   C23-    O8
    35     22     24     36      9   180.00   3.05432   2 ;     O7-   C21-   C23-    O8
    35     22     24     66      9     0.00   0.00000   0 ;     O7-   C21-   C23-  HC16
    35     22     24     66      9     0.00   1.04600   1 ;     O7-   C21-   C23-  HC16
    36     24     22     65      9     0.00   0.00000   0 ;     O8-   C23-   C21-  HC15
    36     24     22     65      9     0.00   1.04600   1 ;     O8-   C23-   C21-  HC15
    36     24     25     37      9     0.00   4.18400   1 ;     O8-   C23-   C24-    O9
    36     24     25     37      9     0.00   6.02496   3 ;     O8-   C23-   C24-    O9
    36     24     25     67      9     0.00   0.00000   0 ;     O8-   C23-   C24-  HC17
    36     24     25     67      9     0.00   1.04600   1 ;     O8-   C23-   C24-  HC17
    37     25     24     66      9     0.00   0.00000   0 ;     O9-   C24-   C23-  HC16
    37     25     24     66      9     0.00   1.04600   1 ;     O9-   C24-   C23-  HC16
    37     25     26     38      9     0.00   4.18400   1 ;     O9-   C24-   C25-   O10
    37     25     26     38      9     0.00   6.02496   3 ;     O9-   C24-   C25-   O10
    37     25     26     68      9     0.00   0.00000   0 ;     O9-   C24-   C25-  HC18
    37     25     26     68      9     0.00   1.04600   1 ;     O9-   C24-   C25-  HC18
    38     26     21     64      9     0.00   0.65084   3 ;    O10-   C25-   C20-  HC14
    38     26     25     67      9     0.00   0.00000   0 ;    O10-   C25-   C24-  HC17
    38     26     25     67      9     0.00   1.04600   1 ;    O10-   C25-   C24-  HC17
    39     27      2     51      9     0.00   0.00000   0 ;    O11-   C26-    C1-   HC1
    39     27      2     51      9     0.00   1.04600   1 ;    O11-   C26-    C1-   HC1
    40      3      4     53      9     0.00   0.00000   0 ;    O12-    C2-    C3-   HC3
    40      3      4     53      9     0.00   1.04600   1 ;    O12-    C2-    C3-   HC3
    40      3      5     41      9     0.00   4.18400   1 ;    O12-    C2-    C4-   O13
    40      3      5     41      9     0.00   6.02496   3 ;    O12-    C2-    C4-   O13
    40      3      5     54      9     0.00   0.00000   0 ;    O12-    C2-    C4-   HC4
    40      3      5     54      9     0.00   1.04600   1 ;    O12-    C2-    C4-   HC4
    41      5      2     51      9     0.00   0.00000   0 ;    O13-    C4-    C1-   HC1
    41      5      2     51      9     0.00   1.04600   1 ;    O13-    C4-    C1-   HC1
    41      5      3     52      9     0.00   0.00000   0 ;    O13-    C4-    C2-   HC2
    41      5      3     52      9     0.00   1.04600   1 ;    O13-    C4-    C2-   HC2
    44     36     24     66      9     0.00   0.51463   3 ;     H2-    O8-   C23-  HC16
    45     37     25     67      9     0.00   0.51463   3 ;     H3-    O9-   C24-  HC17
    46     38     26     68      9     0.00   0.51463   3 ;     H4-   O10-   C25-  HC18
    47     39     27     69      9     0.00   0.51463   3 ;     H5-   O11-   C26-  HC19
    47     39     27     70      9     0.00   0.51463   3 ;     H5-   O11-   C26-  HC20
    48     40      3     52      9     0.00   0.51463   3 ;     H6-   O12-    C2-   HC2
    49     41      5     54      9     0.00   0.51463   3 ;     H7-   O13-    C4-   HC4
    50      1      4      3      9     0.00   0.65084   3 ;     HC-     C-    C3-    C2
    50      1      4     34      9     0.00   0.65084   3 ;     HC-     C-    C3-    O6
    50      1      4     53      9     0.00   0.65084   3 ;     HC-     C-    C3-   HC3
    50      1     28      2      9     0.00   1.60387   3 ;     HC-     C-     O-    C1
    50      1     29      6      9     0.00   1.60387   3 ;     HC-     C-    O1-    C5
    51      2      5     54      9     0.00   0.65084   3 ;    HC1-    C1-    C4-   HC4
    51      2     27     69      9     0.00   0.65084   3 ;    HC1-    C1-   C26-  HC19
    51      2     27     70      9     0.00   0.65084   3 ;    HC1-    C1-   C26-  HC20
    52      3      4     53      9     0.00   0.65084   3 ;    HC2-    C2-    C3-   HC3
    52      3      5     54      9     0.00   0.65084   3 ;    HC2-    C2-    C4-   HC4
    56     10     11     57      9     0.00   0.65084   3 ;    HC6-    C9-   C10-   HC7
    56     10     11     58      9     0.00   0.65084   3 ;    HC6-    C9-   C10-   HC8
    60     16     17     61      9   180.00  15.16700   2 ;   HC10-   C15-   C16-  HC11
    62     19     20     63      9   180.00  15.16700   2 ;   HC12-   C18-   C19-  HC13
    64     21     26     68      9     0.00   0.65084   3 ;   HC14-   C20-   C25-  HC18
    65     22     23     71      9     0.00   0.65084   3 ;   HC15-   C21-   C22-  HC21
    65     22     23     72      9     0.00   0.65084   3 ;   HC15-   C21-   C22-  HC22
    65     22     23     73      9     0.00   0.65084   3 ;   HC15-   C21-   C22-  HC23
    65     22     24     66      9     0.00   0.65084   3 ;   HC15-   C21-   C23-  HC16
    66     24     25     67      9     0.00   0.65084   3 ;   HC16-   C23-   C24-  HC17
    67     25     26     68      9     0.00   0.65084   3 ;   HC17-   C24-   C25-  HC18

[ dihedrals ] ; impropers
; treated as propers in GROMACS to use correct AMBER analytical function
;    i      j      k      l   func   phase     kd      pn
     6      8      7     55      4   180.00   4.60240   2 ;     C5-    C7-    C6-   HC5
     6     13     14     59      4   180.00   4.60240   2 ;     C5-   C12-   C13-   HC9
     7      9      8     30      4   180.00   4.60240   2 ;     C6-    C8-    C7-    O2
     7     14      6     29      4   180.00   4.60240   2 ;     C6-   C13-    C5-    O1
     9     14     13     33      4   180.00   4.60240   2 ;     C8-   C13-   C12-    O5
    10     16     15     20      4   180.00   4.60240   2 ;     C9-   C15-   C14-   C19
    11      9     12     31      4   180.00  43.93200   2 ;    C10-    C8-   C11-    O3
    12      8      9     13      4   180.00   4.60240   2 ;    C11-    C7-    C8-   C12
    15     17     16     60      4   180.00   4.60240   2 ;    C14-   C16-   C15-  HC10
    15     19     20     63      4   180.00   4.60240   2 ;    C14-   C18-   C19-  HC13
    16     18     17     61      4   180.00   4.60240   2 ;    C15-   C17-   C16-  HC11
    17     19     18     32      4   180.00   4.60240   2 ;    C16-   C18-   C17-    O4
    18     20     19     62      4   180.00   4.60240   2 ;    C17-   C19-   C18-  HC12
