; LIG_GMX.itp created by acpype (v: 2023.10.27) on Sat Jul 26 01:48:35 2025

[ atomtypes ]
;name   bond_type     mass     charge   ptype   sigma         epsilon       Amb
 ca       ca          0.00000  0.00000   A     3.31521e-01   4.13379e-01 ; 1.86  0.0988
 c        c           0.00000  0.00000   A     3.31521e-01   4.13379e-01 ; 1.86  0.0988
 cc       cc          0.00000  0.00000   A     3.31521e-01   4.13379e-01 ; 1.86  0.0988
 cd       cd          0.00000  0.00000   A     3.31521e-01   4.13379e-01 ; 1.86  0.0988
 os       os          0.00000  0.00000   A     3.15610e-01   3.03758e-01 ; 1.77  0.0726
 o        o           0.00000  0.00000   A     3.04812e-01   6.12119e-01 ; 1.71  0.1463
 oh       oh          0.00000  0.00000   A     3.24287e-01   3.89112e-01 ; 1.82  0.0930
 ho       ho          0.00000  0.00000   A     5.37925e-02   1.96648e-02 ; 0.30  0.0047
 ha       ha          0.00000  0.00000   A     2.62548e-01   6.73624e-02 ; 1.47  0.0161

[ moleculetype ]
;name            nrexcl
 LIG              3

[ atoms ]
;   nr  type  resi  res  atom  cgnr     charge      mass       ; qtot   bond_type
     1   ca     1   LIG     C    1     0.216100     12.01000 ; qtot 0.216
     2   ca     1   LIG    C1    2    -0.236000     12.01000 ; qtot -0.020
     3   ca     1   LIG    C2    3     0.220100     12.01000 ; qtot 0.200
     4   ca     1   LIG    C3    4    -0.352000     12.01000 ; qtot -0.152
     5   ca     1   LIG    C4    5     0.251100     12.01000 ; qtot 0.099
     6   ca     1   LIG    C5    6    -0.285600     12.01000 ; qtot -0.186
     7    c     1   LIG    C6    7     0.606900     12.01000 ; qtot 0.421
     8   cc     1   LIG    C7    8    -0.028100     12.01000 ; qtot 0.393
     9   cd     1   LIG    C8    9     0.053900     12.01000 ; qtot 0.446
    10   ca     1   LIG    C9   10    -0.058800     12.01000 ; qtot 0.388
    11   ca     1   LIG   C10   11    -0.091000     12.01000 ; qtot 0.297
    12   ca     1   LIG   C11   12    -0.174000     12.01000 ; qtot 0.123
    13   ca     1   LIG   C12   13     0.056100     12.01000 ; qtot 0.179
    14   ca     1   LIG   C13   14     0.111100     12.01000 ; qtot 0.290
    15   ca     1   LIG   C14   15    -0.129000     12.01000 ; qtot 0.161
    16   os     1   LIG     O   16    -0.206200     16.00000 ; qtot -0.045
    17    o     1   LIG    O1   17    -0.485100     16.00000 ; qtot -0.530
    18   oh     1   LIG    O2   18    -0.512100     16.00000 ; qtot -1.043
    19   oh     1   LIG    O3   19    -0.489100     16.00000 ; qtot -1.532
    20   oh     1   LIG    O4   20    -0.459100     16.00000 ; qtot -1.991
    21   oh     1   LIG    O5   21    -0.485100     16.00000 ; qtot -2.476
    22   oh     1   LIG    O6   22    -0.449100     16.00000 ; qtot -2.925
    23   ho     1   LIG     H   23     0.434000      1.00800 ; qtot -2.491
    24   ho     1   LIG    H1   24     0.440000      1.00800 ; qtot -2.051
    25   ho     1   LIG    H2   25     0.422000      1.00800 ; qtot -1.629
    26   ho     1   LIG    H3   26     0.427000      1.00800 ; qtot -1.202
    27   ho     1   LIG    H4   27     0.423000      1.00800 ; qtot -0.779
    28   ha     1   LIG    HC   28     0.174000      1.00800 ; qtot -0.605
    29   ha     1   LIG   HC1   29     0.144000      1.00800 ; qtot -0.461
    30   ha     1   LIG   HC2   30     0.152000      1.00800 ; qtot -0.309
    31   ha     1   LIG   HC3   31     0.142000      1.00800 ; qtot -0.167
    32   ha     1   LIG   HC4   32     0.167000      1.00800 ; qtot 0.000

[ bonds ]
;   ai     aj funct   r             k
     1      2   1    1.3986e-01    2.9644e+05 ;      C - C1    
     1      6   1    1.3986e-01    2.9644e+05 ;      C - C5    
     1     16   1    1.3688e-01    2.8731e+05 ;      C - O     
     2      3   1    1.3986e-01    2.9644e+05 ;     C1 - C2    
     2     28   1    1.0860e-01    3.0183e+05 ;     C1 - HC    
     3      4   1    1.3986e-01    2.9644e+05 ;     C2 - C3    
     3     21   1    1.3644e-01    2.9167e+05 ;     C2 - O5    
     4      5   1    1.3986e-01    2.9644e+05 ;     C3 - C4    
     4     29   1    1.0860e-01    3.0183e+05 ;     C3 - HC1   
     5      6   1    1.3986e-01    2.9644e+05 ;     C4 - C5    
     5     22   1    1.3644e-01    2.9167e+05 ;     C4 - O6    
     6      7   1    1.4907e-01    2.1994e+05 ;     C5 - C6    
     7      8   1    1.4687e-01    2.3579e+05 ;     C6 - C7    
     7     17   1    1.2190e-01    4.9421e+05 ;     C6 - O1    
     8      9   1    1.3730e-01    3.2321e+05 ;     C7 - C8    
     8     20   1    1.3468e-01    3.0993e+05 ;     C7 - O4    
     9     10   1    1.4610e-01    2.4166e+05 ;     C8 - C9    
     9     16   1    1.3608e-01    2.9530e+05 ;     C8 - O     
    10     11   1    1.3986e-01    2.9644e+05 ;     C9 - C10   
    10     15   1    1.3986e-01    2.9644e+05 ;     C9 - C14   
    11     12   1    1.3986e-01    2.9644e+05 ;    C10 - C11   
    11     30   1    1.0860e-01    3.0183e+05 ;    C10 - HC2   
    12     13   1    1.3986e-01    2.9644e+05 ;    C11 - C12   
    12     31   1    1.0860e-01    3.0183e+05 ;    C11 - HC3   
    13     14   1    1.3986e-01    2.9644e+05 ;    C12 - C13   
    13     18   1    1.3644e-01    2.9167e+05 ;    C12 - O2    
    14     15   1    1.3986e-01    2.9644e+05 ;    C13 - C14   
    14     19   1    1.3644e-01    2.9167e+05 ;    C13 - O3    
    15     32   1    1.0860e-01    3.0183e+05 ;    C14 - HC4   
    18     23   1    9.7250e-02    4.4811e+05 ;     O2 - H     
    19     24   1    9.7250e-02    4.4811e+05 ;     O3 - H1    
    20     25   1    9.7250e-02    4.4811e+05 ;     O4 - H2    
    21     26   1    9.7250e-02    4.4811e+05 ;     O5 - H3    
    22     27   1    9.7250e-02    4.4811e+05 ;     O6 - H4    

[ pairs ]
;   ai     aj    funct
     1      4      1 ;      C - C3    
     1      8      1 ;      C - C7    
     1     10      1 ;      C - C9    
     1     17      1 ;      C - O1    
     1     21      1 ;      C - O5    
     1     22      1 ;      C - O6    
     2      5      1 ;     C1 - C4    
     2      7      1 ;     C1 - C6    
     2      9      1 ;     C1 - C8    
     2     26      1 ;     C1 - H3    
     2     29      1 ;     C1 - HC1   
     3     22      1 ;     C2 - O6    
     4      7      1 ;     C3 - C6    
     4     26      1 ;     C3 - H3    
     4     27      1 ;     C3 - H4    
     4     28      1 ;     C3 - HC    
     5      8      1 ;     C4 - C7    
     5     17      1 ;     C4 - O1    
     5     21      1 ;     C4 - O5    
     6      3      1 ;     C5 - C2    
     6      9      1 ;     C5 - C8    
     6     20      1 ;     C5 - O4    
     6     27      1 ;     C5 - H4    
     6     28      1 ;     C5 - HC    
     6     29      1 ;     C5 - HC1   
     7     10      1 ;     C6 - C9    
     7     22      1 ;     C6 - O6    
     7     25      1 ;     C6 - H2    
     8     11      1 ;     C7 - C10   
     8     15      1 ;     C7 - C14   
     9     12      1 ;     C8 - C11   
     9     14      1 ;     C8 - C13   
     9     17      1 ;     C8 - O1    
     9     25      1 ;     C8 - H2    
     9     30      1 ;     C8 - HC2   
     9     32      1 ;     C8 - HC4   
    10     13      1 ;     C9 - C12   
    10     19      1 ;     C9 - O3    
    10     20      1 ;     C9 - O4    
    10     31      1 ;     C9 - HC3   
    11     14      1 ;    C10 - C13   
    11     16      1 ;    C10 - O     
    11     18      1 ;    C10 - O2    
    11     32      1 ;    C10 - HC4   
    12     15      1 ;    C11 - C14   
    12     19      1 ;    C11 - O3    
    12     23      1 ;    C11 - H     
    13     24      1 ;    C12 - H1    
    13     30      1 ;    C12 - HC2   
    13     32      1 ;    C12 - HC4   
    14     23      1 ;    C13 - H     
    14     31      1 ;    C13 - HC3   
    15     16      1 ;    C14 - O     
    15     18      1 ;    C14 - O2    
    15     24      1 ;    C14 - H1    
    15     30      1 ;    C14 - HC2   
    16      3      1 ;      O - C2    
    16      5      1 ;      O - C4    
    16      7      1 ;      O - C6    
    16     20      1 ;      O - O4    
    16     28      1 ;      O - HC    
    17     20      1 ;     O1 - O4    
    18     19      1 ;     O2 - O3    
    18     31      1 ;     O2 - HC3   
    19     32      1 ;     O3 - HC4   
    21     28      1 ;     O5 - HC    
    21     29      1 ;     O5 - HC1   
    22     29      1 ;     O6 - HC1   
    30     31      1 ;    HC2 - HC3   

[ angles ]
;   ai     aj     ak    funct   theta         cth
     1      2      3      1    1.2002e+02    5.3279e+02 ;      C - C1     - C2    
     1      2     28      1    1.1988e+02    3.7572e+02 ;      C - C1     - HC    
     1      6      5      1    1.2002e+02    5.3279e+02 ;      C - C5     - C4    
     1      6      7      1    1.2033e+02    5.1413e+02 ;      C - C5     - C6    
     1     16      9      1    1.1986e+02    7.5253e+02 ;      C - O      - C8    
     2      1      6      1    1.2002e+02    5.3279e+02 ;     C1 - C      - C5    
     2      1     16      1    1.1911e+02    6.6107e+02 ;     C1 - C      - O     
     2      3      4      1    1.2002e+02    5.3279e+02 ;     C1 - C2     - C3    
     2      3     21      1    1.1990e+02    6.5990e+02 ;     C1 - C2     - O5    
     3      2     28      1    1.1988e+02    3.7572e+02 ;     C2 - C1     - HC    
     3      4      5      1    1.2002e+02    5.3279e+02 ;     C2 - C3     - C4    
     3      4     29      1    1.1988e+02    3.7572e+02 ;     C2 - C3     - HC1   
     3     21     26      1    1.0858e+02    5.6409e+02 ;     C2 - O5     - H3    
     4      3     21      1    1.1990e+02    6.5990e+02 ;     C3 - C2     - O5    
     4      5      6      1    1.2002e+02    5.3279e+02 ;     C3 - C4     - C5    
     4      5     22      1    1.1990e+02    6.5990e+02 ;     C3 - C4     - O6    
     5      4     29      1    1.1988e+02    3.7572e+02 ;     C4 - C3     - HC1   
     5      6      7      1    1.2033e+02    5.1413e+02 ;     C4 - C5     - C6    
     5     22     27      1    1.0858e+02    5.6409e+02 ;     C4 - O6     - H4    
     6      1     16      1    1.1911e+02    6.6107e+02 ;     C5 - C      - O     
     6      5     22      1    1.1990e+02    6.5990e+02 ;     C5 - C4     - O6    
     6      7      8      1    1.1533e+02    5.1371e+02 ;     C5 - C6     - C7    
     6      7     17      1    1.2260e+02    6.5237e+02 ;     C5 - C6     - O1    
     7      8      9      1    1.2132e+02    5.2049e+02 ;     C6 - C7     - C8    
     7      8     20      1    1.1361e+02    6.6300e+02 ;     C6 - C7     - O4    
     8      7     17      1    1.2406e+02    6.5572e+02 ;     C7 - C6     - O1    
     8      9     10      1    1.2429e+02    5.1580e+02 ;     C7 - C8     - C9    
     8      9     16      1    1.1671e+02    6.7613e+02 ;     C7 - C8     - O     
     8     20     25      1    1.0710e+02    5.7471e+02 ;     C7 - O4     - H2    
     9      8     20      1    1.2379e+02    6.5982e+02 ;     C8 - C7     - O4    
     9     10     11      1    1.2083e+02    5.1898e+02 ;     C8 - C9     - C10   
     9     10     15      1    1.2083e+02    5.1898e+02 ;     C8 - C9     - C14   
    10      9     16      1    1.1368e+02    6.6208e+02 ;     C9 - C8     - O     
    10     11     12      1    1.2002e+02    5.3279e+02 ;     C9 - C10    - C11   
    10     11     30      1    1.1988e+02    3.7572e+02 ;     C9 - C10    - HC2   
    10     15     14      1    1.2002e+02    5.3279e+02 ;     C9 - C14    - C13   
    10     15     32      1    1.1988e+02    3.7572e+02 ;     C9 - C14    - HC4   
    11     10     15      1    1.2002e+02    5.3279e+02 ;    C10 - C9     - C14   
    11     12     13      1    1.2002e+02    5.3279e+02 ;    C10 - C11    - C12   
    11     12     31      1    1.1988e+02    3.7572e+02 ;    C10 - C11    - HC3   
    12     11     30      1    1.1988e+02    3.7572e+02 ;    C11 - C10    - HC2   
    12     13     14      1    1.2002e+02    5.3279e+02 ;    C11 - C12    - C13   
    12     13     18      1    1.1990e+02    6.5990e+02 ;    C11 - C12    - O2    
    13     12     31      1    1.1988e+02    3.7572e+02 ;    C12 - C11    - HC3   
    13     14     15      1    1.2002e+02    5.3279e+02 ;    C12 - C13    - C14   
    13     14     19      1    1.1990e+02    6.5990e+02 ;    C12 - C13    - O3    
    13     18     23      1    1.0858e+02    5.6409e+02 ;    C12 - O2     - H     
    14     13     18      1    1.1990e+02    6.5990e+02 ;    C13 - C12    - O2    
    14     15     32      1    1.1988e+02    3.7572e+02 ;    C13 - C14    - HC4   
    14     19     24      1    1.0858e+02    5.6409e+02 ;    C13 - O3     - H1    
    15     14     19      1    1.1990e+02    6.5990e+02 ;    C14 - C13    - O3    

[ dihedrals ] ; propers
; for gromacs 4.5 or higher, using funct 9
;    i      j      k      l   func   phase     kd      pn
     1      2      3      4      9   180.00  15.16700   2 ;      C-    C1-    C2-    C3
     1      2      3     21      9   180.00  15.16700   2 ;      C-    C1-    C2-    O5
     1      6      5      4      9   180.00  15.16700   2 ;      C-    C5-    C4-    C3
     1      6      5     22      9   180.00  15.16700   2 ;      C-    C5-    C4-    O6
     1      6      7      8      9   180.00   7.93914   2 ;      C-    C5-    C6-    C7
     1      6      7     17      9   180.00   2.42672   2 ;      C-    C5-    C6-    O1
     1     16      9      8      9   180.00   2.71960   1 ;      C-     O-    C8-    C7
     1     16      9     10      9   180.00   2.71960   1 ;      C-     O-    C8-    C9
     2      1      6      5      9   180.00  15.16700   2 ;     C1-     C-    C5-    C4
     2      1      6      7      9   180.00  15.16700   2 ;     C1-     C-    C5-    C6
     2      1     16      9      9   180.00   3.76560   2 ;     C1-     C-     O-    C8
     2      3      4      5      9   180.00  15.16700   2 ;     C1-    C2-    C3-    C4
     2      3      4     29      9   180.00  15.16700   2 ;     C1-    C2-    C3-   HC1
     2      3     21     26      9   180.00   3.57732   2 ;     C1-    C2-    O5-    H3
     3      4      5      6      9   180.00  15.16700   2 ;     C2-    C3-    C4-    C5
     3      4      5     22      9   180.00  15.16700   2 ;     C2-    C3-    C4-    O6
     4      3      2     28      9   180.00  15.16700   2 ;     C3-    C2-    C1-    HC
     4      3     21     26      9   180.00   3.57732   2 ;     C3-    C2-    O5-    H3
     4      5      6      7      9   180.00  15.16700   2 ;     C3-    C4-    C5-    C6
     4      5     22     27      9   180.00   3.57732   2 ;     C3-    C4-    O6-    H4
     5      4      3     21      9   180.00  15.16700   2 ;     C4-    C3-    C2-    O5
     5      6      7      8      9   180.00   7.93914   2 ;     C4-    C5-    C6-    C7
     5      6      7     17      9   180.00   2.42672   2 ;     C4-    C5-    C6-    O1
     6      1      2      3      9   180.00  15.16700   2 ;     C5-     C-    C1-    C2
     6      1      2     28      9   180.00  15.16700   2 ;     C5-     C-    C1-    HC
     6      1     16      9      9   180.00   3.76560   2 ;     C5-     C-     O-    C8
     6      5      4     29      9   180.00  15.16700   2 ;     C5-    C4-    C3-   HC1
     6      5     22     27      9   180.00   3.57732   2 ;     C5-    C4-    O6-    H4
     6      7      8      9      9     0.00   8.89100   2 ;     C5-    C6-    C7-    C8
     6      7      8      9      9   180.00   1.04600   3 ;     C5-    C6-    C7-    C8
     6      7      8      9      9   180.00  14.56032   1 ;     C5-    C6-    C7-    C8
     6      7      8     20      9   180.00  12.02900   2 ;     C5-    C6-    C7-    O4
     7      6      5     22      9   180.00  15.16700   2 ;     C6-    C5-    C4-    O6
     7      8      9     10      9   180.00  16.73600   2 ;     C6-    C7-    C8-    C9
     7      8      9     16      9   180.00  16.73600   2 ;     C6-    C7-    C8-     O
     7      8     20     25      9   180.00   5.35552   2 ;     C6-    C7-    O4-    H2
     8      9     10     11      9   180.00  15.77368   2 ;     C7-    C8-    C9-   C10
     8      9     10     15      9   180.00  15.77368   2 ;     C7-    C8-    C9-   C14
     9      8      7     17      9   180.00  12.02900   2 ;     C8-    C7-    C6-    O1
     9      8     20     25      9   180.00   5.35552   2 ;     C8-    C7-    O4-    H2
     9     10     11     12      9   180.00  15.16700   2 ;     C8-    C9-   C10-   C11
     9     10     11     30      9   180.00  15.16700   2 ;     C8-    C9-   C10-   HC2
     9     10     15     14      9   180.00  15.16700   2 ;     C8-    C9-   C14-   C13
     9     10     15     32      9   180.00  15.16700   2 ;     C8-    C9-   C14-   HC4
    10      9      8     20      9   180.00  16.73600   2 ;     C9-    C8-    C7-    O4
    10     11     12     13      9   180.00  15.16700   2 ;     C9-   C10-   C11-   C12
    10     11     12     31      9   180.00  15.16700   2 ;     C9-   C10-   C11-   HC3
    10     15     14     13      9   180.00  15.16700   2 ;     C9-   C14-   C13-   C12
    10     15     14     19      9   180.00  15.16700   2 ;     C9-   C14-   C13-    O3
    11     10      9     16      9   180.00   2.92880   2 ;    C10-    C9-    C8-     O
    11     10     15     14      9   180.00  15.16700   2 ;    C10-    C9-   C14-   C13
    11     10     15     32      9   180.00  15.16700   2 ;    C10-    C9-   C14-   HC4
    11     12     13     14      9   180.00  15.16700   2 ;    C10-   C11-   C12-   C13
    11     12     13     18      9   180.00  15.16700   2 ;    C10-   C11-   C12-    O2
    12     11     10     15      9   180.00  15.16700   2 ;    C11-   C10-    C9-   C14
    12     13     14     15      9   180.00  15.16700   2 ;    C11-   C12-   C13-   C14
    12     13     14     19      9   180.00  15.16700   2 ;    C11-   C12-   C13-    O3
    12     13     18     23      9   180.00   3.57732   2 ;    C11-   C12-    O2-     H
    13     12     11     30      9   180.00  15.16700   2 ;    C12-   C11-   C10-   HC2
    13     14     15     32      9   180.00  15.16700   2 ;    C12-   C13-   C14-   HC4
    13     14     19     24      9   180.00   3.57732   2 ;    C12-   C13-    O3-    H1
    14     13     12     31      9   180.00  15.16700   2 ;    C13-   C12-   C11-   HC3
    14     13     18     23      9   180.00   3.57732   2 ;    C13-   C12-    O2-     H
    15     10      9     16      9   180.00   2.92880   2 ;    C14-    C9-    C8-     O
    15     10     11     30      9   180.00  15.16700   2 ;    C14-    C9-   C10-   HC2
    15     14     13     18      9   180.00  15.16700   2 ;    C14-   C13-   C12-    O2
    15     14     19     24      9   180.00   3.57732   2 ;    C14-   C13-    O3-    H1
    16      1      2      3      9   180.00  15.16700   2 ;      O-     C-    C1-    C2
    16      1      2     28      9   180.00  15.16700   2 ;      O-     C-    C1-    HC
    16      1      6      5      9   180.00  15.16700   2 ;      O-     C-    C5-    C4
    16      1      6      7      9   180.00  15.16700   2 ;      O-     C-    C5-    C6
    16      9      8     20      9   180.00  16.73600   2 ;      O-    C8-    C7-    O4
    17      7      8     20      9   180.00  12.02900   2 ;     O1-    C6-    C7-    O4
    18     13     12     31      9   180.00  15.16700   2 ;     O2-   C12-   C11-   HC3
    18     13     14     19      9   180.00  15.16700   2 ;     O2-   C12-   C13-    O3
    19     14     15     32      9   180.00  15.16700   2 ;     O3-   C13-   C14-   HC4
    21      3      2     28      9   180.00  15.16700   2 ;     O5-    C2-    C1-    HC
    21      3      4     29      9   180.00  15.16700   2 ;     O5-    C2-    C3-   HC1
    22      5      4     29      9   180.00  15.16700   2 ;     O6-    C4-    C3-   HC1
    30     11     12     31      9   180.00  15.16700   2 ;    HC2-   C10-   C11-   HC3

[ dihedrals ] ; impropers
; treated as propers in GROMACS to use correct AMBER analytical function
;    i      j      k      l   func   phase     kd      pn
     1      3      2     28      4   180.00   4.60240   2 ;      C-    C2-    C1-    HC
     2      4      3     21      4   180.00   4.60240   2 ;     C1-    C3-    C2-    O5
     3      5      4     29      4   180.00   4.60240   2 ;     C2-    C4-    C3-   HC1
     4      6      5     22      4   180.00   4.60240   2 ;     C3-    C5-    C4-    O6
     6      8      7     17      4   180.00  43.93200   2 ;     C5-    C7-    C6-    O1
     7      1      6      5      4   180.00   4.60240   2 ;     C6-     C-    C5-    C4
     7      9      8     20      4   180.00   4.60240   2 ;     C6-    C8-    C7-    O4
    10      8      9     16      4   180.00   4.60240   2 ;     C9-    C7-    C8-     O
    10     12     11     30      4   180.00   4.60240   2 ;     C9-   C11-   C10-   HC2
    10     14     15     32      4   180.00   4.60240   2 ;     C9-   C13-   C14-   HC4
    11     13     12     31      4   180.00   4.60240   2 ;    C10-   C12-   C11-   HC3
    11     15     10      9      4   180.00   4.60240   2 ;    C10-   C14-    C9-    C8
    12     14     13     18      4   180.00   4.60240   2 ;    C11-   C13-   C12-    O2
    13     15     14     19      4   180.00   4.60240   2 ;    C12-   C14-   C13-    O3
    16      1      6      2      4   180.00   4.60240   2 ;      O-     C-    C5-    C1
