LIG_GMX.gro created by acpype (v: 2023.10.27) on Sat Jul 26 01:48:35 2025
 32
    1  UNK    C    1   2.270   0.557   4.507
    1  UNK   C1    2   2.259   0.552   4.373
    1  UNK   C2    3   2.328   0.465   4.298
    1  UNK   C3    4   2.410   0.381   4.363
    1  UNK   C4    5   2.424   0.381   4.497
    1  UNK   C5    6   2.353   0.471   4.570
    1  UNK   C6    7   2.362   0.479   4.706
    1  UNK   C7    8   2.291   0.574   4.774
    1  UNK   C8    9   2.211   0.662   4.709
    1  UNK   C9   10   2.142   0.763   4.768
    1  UNK  C10   11   2.175   0.894   4.773
    1  UNK  C11   12   2.098   0.986   4.834
    1  UNK  C12   13   1.983   0.953   4.894
    1  UNK  C13   14   1.945   0.824   4.889
    1  UNK  C14   15   2.023   0.735   4.827
    1  UNK    O   16   2.194   0.648   4.574
    1  UNK   O1   17   2.432   0.403   4.771
    1  UNK   O2   18   1.905   1.046   4.955
    1  UNK   O3   19   1.827   0.788   4.947
    1  UNK   O4   20   2.302   0.568   4.909
    1  UNK   O5   21   2.315   0.462   4.163
    1  UNK   O6   22   2.511   0.290   4.550
    1  UNK    H   23   1.961   1.115   4.993
    1  UNK   H1   24   1.774   0.868   4.962
    1  UNK   H2   25   2.246   0.636   4.949
    1  UNK   H3   26   2.267   0.382   4.137
    1  UNK   H4   27   2.600   0.308   4.516
    1  UNK   HC   28   2.192   0.621   4.324
    1  UNK  HC1   29   2.467   0.310   4.306
    1  UNK  HC2   30   2.266   0.926   4.725
    1  UNK  HC3   31   2.131   1.089   4.835
    1  UNK  HC4   32   1.989   0.632   4.823
   16.51600    16.49400    17.12600
